 VARIABLES = X,Y,Z,S11,S22,S33,S12,S13,S23
 ZONE, T="0.1000D+01" F=FEPOINT, I= 4104 J= 3075 ET=BRICK
   0.7464960402E+00   0.9025656600E+00   0.4356257069E-03   0.1556396494E+01  -0.7674100310E-01  -0.3054380229E-02  -0.3299366135E+00  -0.7233227169E-01   0.4691597679E-01
   0.5507228234E+00   0.1003837229E+01   0.2276630427E-02   0.2056958742E+01   0.8259308372E-01   0.3637292298E-01  -0.2584335335E+00  -0.8056943382E-01   0.2592536932E-02
   0.4920078251E+00   0.8751672357E+00   0.2789333483E-02   0.2200826013E+01   0.2741705469E+00   0.1964827646E-01  -0.8009353675E+00  -0.1613278518E+00   0.8116632756E-01
   0.6621782416E+00   0.7811398392E+00   0.5791637098E-03   0.1258268338E+01   0.3304459399E+00   0.9961853776E-02  -0.6451594175E+00  -0.1513557593E+00   0.1032096644E+00
   0.7474357018E+00   0.9020587096E+00   0.1989495614E+00   0.1440921187E+01   0.6781773356E-01  -0.7689330426E-02  -0.3885865083E+00  -0.6035106576E-01   0.4127410751E-01
   0.5518095681E+00   0.1003966147E+01   0.2000762184E+00   0.2093046450E+01   0.2195150193E+00   0.5518234485E-01  -0.3904846935E+00  -0.6342501009E-01   0.1545346803E-01
   0.4930879816E+00   0.8753461044E+00   0.2004239827E+00   0.2266858122E+01   0.3886424142E+00   0.8534214627E-02  -0.9138173363E+00  -0.1352362960E+00   0.7289012275E-01
   0.6631286460E+00   0.7806444534E+00   0.1990399108E+00   0.1188503283E+01   0.4349888395E+00   0.5511012992E-02  -0.6920158531E+00  -0.1258444006E+00   0.9202748772E-01
   0.3310732476E+00   0.1064579517E+01   0.3821741979E-02   0.2539189277E+01   0.2071747485E+00   0.7014945980E-01  -0.1589720758E+00  -0.6930012566E-01  -0.4547199695E-01
   0.3050038787E+00   0.9372139781E+00   0.4607185526E-02   0.3120444015E+01   0.1213388363E+00   0.5408738155E-01  -0.6197449525E+00  -0.1288920021E+00   0.3076228414E-01
   0.3318818736E+00   0.1065388810E+01   0.2010117369E+00   0.2743817309E+01   0.2818479733E+00   0.1065605173E+00  -0.2930138724E+00  -0.5354155363E-01  -0.7523229408E-02
   0.3058242828E+00   0.9381017107E+00   0.2015327098E+00   0.3356334831E+01   0.2001022977E+00   0.6814657552E-01  -0.7397653222E+00  -0.1008461590E+00   0.3407080001E-01
   0.1088833244E+00   0.1094607106E+01   0.4523637997E-02   0.2740266659E+01   0.2604545685E+00   0.7344867054E-01  -0.4247233995E-01  -0.1487504685E-01  -0.7122354989E-01
   0.1119710443E+00   0.9648339430E+00   0.5522224393E-02   0.3671199339E+01   0.1411936047E-01   0.9018617449E-01  -0.1561952432E+00  -0.3342730545E-01  -0.1420900636E-01
   0.1090664702E+00   0.1095789588E+01   0.2014463604E+00   0.3055638740E+01   0.2918476939E+00   0.1196342703E+00  -0.7537465131E-01  -0.1165618159E-01  -0.1982557249E-01
   0.1121862605E+00   0.9661193883E+00   0.2020743763E+00   0.4013030934E+01   0.4543938322E-01   0.1154820520E+00  -0.1890068780E+00  -0.2595117931E-01   0.1244431935E-01
  -0.1187622931E+00   0.1093161064E+01   0.4210992148E-02   0.2648881383E+01   0.2358674445E+00   0.7646694770E-01   0.6911253212E-01   0.4133768608E-01  -0.6424686554E-01
  -0.8571637242E-01   0.9583826869E+00   0.5259149993E-02   0.3513151620E+01   0.4354656783E-01   0.7245233334E-01   0.4047469688E+00   0.8495503921E-01   0.7916212199E-02
  -0.1192943802E+00   0.1094193304E+01   0.2012493494E+00   0.2920748237E+01   0.2871069398E+00   0.1198248820E+00   0.1610863988E+00   0.3468520175E-01  -0.1866719522E-01
  -0.8621431127E-01   0.9595470320E+00   0.2019288765E+00   0.3826685448E+01   0.9969041766E-01   0.9399334486E-01   0.4918929394E+00   0.6206040146E-01   0.2068370723E-01
  -0.3505823292E+00   0.1060494548E+01   0.2939053006E-02   0.2278194006E+01   0.1270017982E+00   0.5618680922E-01   0.1275160215E+00   0.8162950373E-01  -0.3840404875E-01
  -0.2903295308E+00   0.9136930040E+00   0.3792275159E-02   0.2664399223E+01   0.1496989873E+00   0.2940889506E-01   0.7119564563E+00   0.1437402545E+00   0.7285091972E-01
  -0.3515567077E+00   0.1060951763E+01   0.2004699418E+00   0.2373946812E+01   0.2321882348E+00   0.8998257983E-01   0.2751835599E+00   0.6312719055E-01  -0.1059293883E-01
  -0.2913282530E+00   0.9142279222E+00   0.2010560164E+00   0.2808982231E+01   0.2850681296E+00   0.2483017828E-01   0.8413484179E+00   0.1183884479E+00   0.5926458113E-01
   0.8548241399E+00   0.1046498879E+01   0.2593587275E-03   0.1714546905E+01  -0.2969089492E+00  -0.1339907127E-02  -0.4801810141E-01  -0.2688303772E-01   0.1024383525E-01
   0.5744729678E+00   0.1149915684E+01   0.1840449707E-02   0.2025810992E+01  -0.3867882378E-01  -0.3258356747E-02   0.1727690287E+00  -0.5391620758E-01  -0.2954486542E-01
   0.8555009305E+00   0.1046135791E+01   0.1988352638E+00   0.1612302154E+01  -0.1821630607E+00  -0.5775671797E-02  -0.1047496842E+00  -0.1844226165E-01   0.6188833704E-02
   0.5752847584E+00   0.1150172461E+01   0.1998356948E+00   0.2015912420E+01   0.5783522466E-01  -0.6790355091E-02   0.2786134482E-01  -0.4242427941E-01  -0.1668326626E-01
   0.3344038318E+00   0.1206349974E+01   0.2863494254E-02   0.2093160299E+01   0.2044139162E+00  -0.6824108560E-02   0.1560926048E+00  -0.3680044944E-01  -0.6105188594E-01
   0.3349744083E+00   0.1207153855E+01   0.2004929092E+00   0.2223620217E+01   0.2414118784E+00  -0.1547432431E-01   0.3432381600E-01  -0.2968650360E-01  -0.3128651856E-01
   0.1083115951E+00   0.1235240307E+01   0.3228571190E-02   0.2074790895E+01   0.3342114997E+00  -0.9366421379E-02   0.5041080770E-01  -0.8264199487E-02  -0.8103089694E-01
   0.1084269467E+00   0.1236296654E+01   0.2007327429E+00   0.2268914872E+01   0.3314969764E+00  -0.2036737925E-01   0.2251346974E-01  -0.6301214332E-02  -0.4614245792E-01
  -0.1166922419E+00   0.1242370835E+01   0.2968355688E-02   0.2027272388E+01   0.2909086754E+00  -0.9779817565E-02  -0.1053165125E+00   0.2274156910E-01  -0.7436755776E-01
  -0.1170410495E+00   0.1243329435E+01   0.2005686808E+00   0.2188217845E+01   0.3042570102E+00  -0.2079911917E-01  -0.2239533195E-01   0.1817451123E-01  -0.4217741817E-01
  -0.3466383813E+00   0.1231262193E+01   0.2175491858E-02   0.1962947409E+01   0.8145187017E-01  -0.1741498455E-01  -0.2098559856E+00   0.3731300236E-01  -0.3922697431E-01
  -0.3472643429E+00   0.1231826922E+01   0.2000674971E+00   0.2006410090E+01   0.1382869313E+00  -0.3319880455E-01  -0.7515451013E-01   0.2917717588E-01  -0.2116615417E-01
  -0.1280680511E+00   0.1408993310E+01   0.1804805781E-02   0.1723549921E+01   0.2463833475E+00   0.3603074945E-02  -0.1600644292E+00   0.1055251033E-01  -0.3365285934E-01
  -0.3535355989E+00   0.1409527858E+01   0.1379577436E-02   0.1734067179E+01   0.9197815174E-01   0.2845887690E-02  -0.2842891728E+00   0.1214663161E-01  -0.2032520269E-01
  -0.1282655020E+00   0.1409870749E+01   0.1998101175E+00   0.1794722256E+01   0.2264622183E+00  -0.7834804990E-02  -0.1029559868E+00   0.8158026419E-02  -0.3573497053E-01
  -0.3538684696E+00   0.1410131331E+01   0.1995346254E+00   0.1754538424E+01   0.9585022009E-01  -0.1053552339E-01  -0.1896549877E+00   0.9144239226E-02  -0.2324040054E-01
  -0.1412267373E+00   0.1587272739E+01   0.7577716544E-03   0.1480880236E+01   0.1569033822E+00   0.3846464475E-02  -0.1660450261E+00   0.1933391662E-02  -0.3896378876E-01
  -0.3651634292E+00   0.1591335445E+01   0.6226745266E-03   0.1516524341E+01   0.6378534184E-01   0.1534839782E-02  -0.2841137704E+00   0.1776265839E-02  -0.2701212924E-01
  -0.1412982617E+00   0.1588061428E+01   0.1991256533E+00   0.1498007546E+01   0.1323830754E+00  -0.9447257361E-03  -0.1193669609E+00   0.2630751647E-03  -0.1794464438E-01
  -0.3652726743E+00   0.1591908361E+01   0.1990426329E+00   0.1519395622E+01   0.5822484504E-01  -0.8574911466E-03  -0.2055991170E+00  -0.2352680100E-02  -0.1078899473E-01
  -0.1505972878E+00   0.1772066789E+01  -0.2392229859E-03   0.1181697393E+01   0.5289265999E-01  -0.1744699738E-01  -0.1085093524E+00  -0.6281936679E-02  -0.2273366443E-01
  -0.3738938819E+00   0.1775698531E+01  -0.9913384727E-04   0.1269277399E+01   0.2313303985E-01  -0.1116457042E-01  -0.1840328698E+00  -0.1140414709E-01  -0.1516204335E-01
  -0.1505602459E+00   0.1772813802E+01   0.1985368388E+00   0.1155542754E+01   0.3088801999E-01  -0.3284306198E-01  -0.7673625234E-01  -0.6314417877E-02  -0.1004449890E-02
  -0.3738171944E+00   0.1776256362E+01   0.1986127268E+00   0.1249146784E+01   0.9310258248E-02  -0.2293355522E-01  -0.1295676611E+00  -0.1141918955E-01   0.1012192817E-03
  -0.1576921378E+00   0.1959901756E+01  -0.1044898205E-02   0.8555866598E+00   0.3638395102E-01  -0.1246310190E-01  -0.4698678562E-01  -0.2409809287E-01  -0.4946768928E-02
  -0.3802456835E+00   0.1961832669E+01  -0.6840223195E-03   0.1028692254E+01   0.2224859169E-01  -0.7336301393E-02  -0.7760935328E-01  -0.4130421416E-01  -0.4167523711E-02
  -0.1576328604E+00   0.1960617922E+01   0.1980133495E+00   0.8314529780E+00   0.2078100489E-01  -0.6657500821E-02  -0.2737849490E-01  -0.2228791437E-01   0.6845924909E-02
  -0.3801381485E+00   0.1962363705E+01   0.1982311306E+00   0.1016329039E+01   0.1289927915E-01   0.7465672091E-03  -0.4546202804E-01  -0.3873878052E-01   0.4888658045E-02
   0.9715648558E-01   0.1399733166E+01   0.2000827550E-02   0.1738216656E+01   0.2947972541E+00   0.5831256878E-02   0.3961499782E-01  -0.1297000191E-02  -0.3774534888E-01
   0.9720521409E-01   0.1400696097E+01   0.1999352826E+00   0.1833592342E+01   0.2676073412E+00  -0.5490247594E-02   0.2503760266E-01  -0.1110663947E-02  -0.3936874866E-01
   0.8405419082E-01   0.1579439918E+01   0.8517315241E-03   0.1477284625E+01   0.1941326113E+00   0.4729068189E-02   0.2626764819E-01   0.2936445956E-03  -0.4467488673E-01
   0.8406354931E-01   0.1580296702E+01   0.1991850361E+00   0.1505381053E+01   0.1648309920E+00   0.1530759243E-02   0.1805188733E-01   0.4902892404E-03  -0.2234270863E-01
   0.7414916235E-01   0.1767491168E+01  -0.2618037022E-03   0.1157893588E+01   0.6867396656E-01  -0.1900072648E-01   0.1308827948E-01   0.3954683750E-03  -0.2560586970E-01
   0.7414362435E-01   0.1768301773E+01   0.1985261585E+00   0.1129061448E+01   0.4139505964E-01  -0.3755123170E-01   0.9162006495E-02   0.9885738849E-03  -0.2126534184E-02
   0.6649262202E-01   0.1959268513E+01  -0.1165027534E-02   0.7945650039E+00   0.4244817459E-01  -0.1519188213E-01   0.1213302912E-02   0.2739702214E-02  -0.5151224125E-02
   0.6648469515E-01   0.1960046094E+01   0.1979415724E+00   0.7674270740E+00   0.2408412333E-01  -0.8998326975E-02  -0.1498944201E-02   0.1774073796E-02   0.8135420015E-02
   0.3250936859E+00   0.1378414872E+01   0.1856857360E-02   0.1775834676E+01   0.2033540551E+00   0.3839364673E-02   0.2192823572E+00  -0.1267256148E-01  -0.3229434206E-01
   0.3254029079E+00   0.1379205722E+01   0.1998448523E+00   0.1846528427E+01   0.2007040212E+00  -0.4646510350E-02   0.1338960295E+00  -0.1118809460E-01  -0.3343296871E-01
   0.3112880510E+00   0.1566178900E+01   0.8555725477E-03   0.1520800244E+01   0.1492899050E+00   0.5969336176E-02   0.2136194600E+00  -0.4188196978E-02  -0.3808776877E-01
   0.3113899476E+00   0.1566922050E+01   0.1991855738E+00   0.1538876561E+01   0.1298660130E+00   0.1915741651E-02   0.1520994706E+00  -0.4528276797E-03  -0.1953518633E-01
   0.3000073643E+00   0.1761538310E+01  -0.1634311957E-03   0.1210134937E+01   0.5306535920E-01  -0.1850679291E-01   0.1354289081E+00   0.7435818434E-02  -0.2262969303E-01
   0.2999638061E+00   0.1762254601E+01   0.1985842993E+00   0.1186734891E+01   0.3066567472E-01  -0.3427529353E-01   0.9618161094E-01   0.7166608075E-02  -0.1947995828E-02
   0.2909720384E+00   0.1960110278E+01  -0.9930801043E-03   0.8777316890E+00   0.3964915982E-01  -0.9724906091E-02   0.5333999551E-01   0.2769422179E-01  -0.2750027262E-02
   0.2908994287E+00   0.1960799667E+01   0.1980412495E+00   0.8543560691E+00   0.2196918287E-01  -0.2953476386E-02   0.2974898379E-01   0.2557288473E-01   0.7311638640E-02
   0.5615094741E+00   0.1344652105E+01   0.1385792461E-02   0.1799052874E+01   0.1448164218E-01   0.4612715603E-02   0.2675827266E+00  -0.1776669263E-01  -0.1225654792E-01
   0.5619644776E+00   0.1345073395E+01   0.1995346189E+00   0.1803337593E+01   0.4907165698E-01  -0.1127077458E-02   0.1597480318E+00  -0.1477862712E-01  -0.1359590256E-01
   0.5423501429E+00   0.1548372983E+01   0.7430863182E-03   0.1578399941E+01   0.3205865720E-01  -0.1198472674E-02   0.3181504302E+00  -0.4287957531E-02  -0.2563653408E-01
   0.5425116758E+00   0.1548857456E+01   0.1991215259E+00   0.1579234547E+01   0.3527222412E-01  -0.7099365490E-02   0.2300223837E+00   0.1013322820E-02  -0.1303590095E-01
   0.5272132191E+00   0.1754678207E+01   0.2674667754E-04   0.1320817762E+01   0.2318298313E-01  -0.7525456897E-02   0.2072065378E+00   0.1027119961E-01  -0.1322772193E-01
   0.5271444946E+00   0.1755180430E+01   0.1986871975E+00   0.1304384438E+01   0.9553010622E-02  -0.1738806241E-01   0.1477153940E+00   0.1051867929E-01  -0.8633796714E-03
   0.5153269612E+00   0.1962219400E+01  -0.6000062105E-03   0.1060646446E+01   0.2330728575E-01  -0.7667564030E-02   0.8264432319E-01   0.4220902241E-01  -0.3793484972E-02
   0.5152073249E+00   0.1962708413E+01   0.1982816448E+00   0.1050558299E+01   0.1333153033E-01  -0.2698191534E-03   0.4592378465E-01   0.3985335985E-01   0.5932247213E-02
   0.8081101517E+00   0.1304044126E+01   0.7161296629E-03   0.1758415286E+01  -0.1783726000E+00   0.5596844185E-02   0.2022709498E+00  -0.1414567167E-01   0.6150538813E-02
   0.8085435097E+00   0.1304067562E+01   0.1991021313E+00   0.1721337722E+01  -0.1230031644E+00  -0.7635516425E-03   0.1184944339E+00  -0.7022601238E-02   0.1168081891E-02
   0.7735963090E+00   0.1529716057E+01   0.5696858730E-03   0.1610280945E+01  -0.7362718019E-01   0.8971831297E-03   0.3051625221E+00  -0.2585952965E-02  -0.1362806011E-01
   0.7737645039E+00   0.1529902405E+01   0.1990137644E+00   0.1602442711E+01  -0.4759433844E-01   0.6973771975E-03   0.2225405001E+00   0.1520441691E-02  -0.6219799395E-02
   0.7508103415E+00   0.1747758402E+01   0.2241024844E-03   0.1431144446E+01  -0.1490046183E-01  -0.4089965586E-02   0.2153161214E+00   0.9809562812E-02  -0.4689199229E-02
   0.7507362229E+00   0.1748007685E+01   0.1988018856E+00   0.1424426032E+01  -0.1926205729E-01  -0.1105359910E-01   0.1533465025E+00   0.1116271365E-01  -0.2792665662E-03
   0.7384997490E+00   0.1965102955E+01  -0.1041691641E-03   0.1288832786E+01   0.8707352618E-02   0.8071714659E-03   0.9532613536E-01   0.4353004716E-01  -0.1043877952E-02
   0.7383625552E+00   0.1965346540E+01   0.1985830602E+00   0.1294129673E+01   0.5001244482E-02   0.9580689807E-02   0.5614886558E-01   0.4150731267E-01   0.2892140427E-02
   0.9766865081E+00   0.1745547000E+01   0.3921088290E-03   0.1517633883E+01  -0.3918602956E-01   0.4590468185E-03   0.1744071413E+00   0.8248423470E-02   0.1104824040E-02
   0.9618885752E+00   0.1968269272E+01   0.3580420744E-03   0.1494678033E+01  -0.6212439354E-02   0.5222142715E-02   0.7279638036E-01   0.3434905939E-01   0.1207810319E-02
   0.9766226832E+00   0.1745560847E+01   0.1988999656E+00   0.1523610178E+01  -0.3178792762E-01  -0.1381146162E-03   0.1240635021E+00   0.8273102062E-02  -0.4250735035E-04
   0.9617683286E+00   0.1968291245E+01   0.1988690993E+00   0.1509019977E+01  -0.5784955394E-02   0.9439386077E-02   0.4039766154E-01   0.3418525166E-01  -0.3598753500E-03
   0.1200127461E+01   0.1746133068E+01   0.5098075438E-03   0.1575807876E+01  -0.4522587859E-01   0.7169702964E-02   0.1027981706E+00   0.3761541445E-02   0.7171313530E-02
   0.1184556204E+01   0.1971293065E+01   0.6970635282E-03   0.1638988892E+01  -0.1597075447E-01   0.4546393687E-02   0.5231624541E-01   0.2259377391E-01   0.2010572404E-03
   0.1200084128E+01   0.1745976108E+01   0.1989645816E+00   0.1589509613E+01  -0.3474510199E-01   0.1122137062E-01   0.7061114880E-01   0.4081476623E-02   0.6052684318E-03
   0.1184477472E+01   0.1971151142E+01   0.1990841714E+00   0.1658698240E+01  -0.9709753709E-02   0.4678277812E-02   0.3112863541E-01   0.2241669837E-01  -0.2247149579E-02
   0.1421390149E+01   0.1747932991E+01   0.5597338968E-03   0.1592026898E+01  -0.3930294422E-01   0.5686184062E-02   0.3305142622E-01   0.1083302047E-02   0.9287077459E-02
   0.1406261122E+01   0.1973909150E+01   0.8862662221E-03   0.1718549987E+01  -0.1896219782E-01   0.6802589349E-02   0.1981736132E-01   0.9391168966E-02   0.1695309100E-02
   0.1421378486E+01   0.1747683723E+01   0.1989945346E+00   0.1607265082E+01  -0.3017763959E-01   0.9272470400E-02   0.1869157968E-01   0.1539734337E-02   0.5185547815E-03
   0.1406229840E+01   0.1973670225E+01   0.1992028315E+00   0.1739512736E+01  -0.1184591916E-01   0.5814881628E-02   0.9329694436E-02   0.9906238171E-02  -0.3200427444E-02
   0.1641117130E+01   0.1749986387E+01   0.5591579319E-03   0.1582862160E+01  -0.2494667844E-01   0.8050258598E-02  -0.2048397342E-01  -0.1035946981E-02   0.9205979510E-02
   0.1627192439E+01   0.1976016716E+01   0.9247759858E-03   0.1730243939E+01  -0.1848731669E-01   0.3037135084E-02   0.1855544352E-03  -0.1990959677E-03   0.5043260141E-03
   0.1641135854E+01   0.1749704509E+01   0.1989918692E+00   0.1597151039E+01  -0.1680908617E-01   0.1269607995E-01  -0.2233918701E-01  -0.4939966269E-03  -0.5418311594E-03
   0.1627208104E+01   0.1975746594E+01   0.1992318679E+00   0.1747182861E+01  -0.1091927119E-01  -0.1561068259E-02  -0.1058739390E-02   0.8744895947E-03  -0.3290222142E-02
   0.1859943122E+01   0.1751903081E+01   0.5040555809E-03   0.1551712186E+01  -0.1461843637E-01   0.5281329628E-02  -0.5170267124E-01  -0.2765124016E-02   0.7780730442E-02
   0.1847537589E+01   0.1977620315E+01   0.8618586382E-03   0.1700359196E+01  -0.1474086229E-01   0.3273304618E-02  -0.1621454172E-01  -0.5924995991E-02   0.1015733224E-02
   0.1859989265E+01   0.1751629637E+01   0.1989599903E+00   0.1562783435E+01  -0.8107245949E-02   0.8466889442E-02  -0.4606124190E-01  -0.1729264068E-02  -0.1313629608E-02
   0.1847587813E+01   0.1977357311E+01   0.1991935657E+00   0.1711868272E+01  -0.8277012046E-02  -0.1623432932E-02  -0.1282141419E-01  -0.4757235835E-02  -0.3249211238E-02
   0.2078242624E+01   0.1753557934E+01   0.4169903179E-03   0.1511948954E+01  -0.5112746241E-02   0.5232065503E-02  -0.6647790519E-01  -0.3307400557E-02   0.6164468773E-02
   0.2067484433E+01   0.1978796339E+01   0.7296087753E-03   0.1642733939E+01  -0.1178571603E-01   0.4310989676E-03  -0.2105413299E-01  -0.8608681962E-02   0.2837115111E-03
   0.2078306328E+01   0.1753313826E+01   0.1989064808E+00   0.1518366964E+01   0.3067891025E-03   0.8033499677E-02  -0.5756612036E-01  -0.2236287752E-02  -0.1897588042E-02
   0.2067557199E+01   0.1978564737E+01   0.1991135572E+00   0.1648176542E+01  -0.6339357881E-02  -0.5639797166E-02  -0.1498611856E-01  -0.7133160407E-02  -0.2704158637E-02
   0.2296244606E+01   0.1754960403E+01   0.3098771868E-03   0.1466387849E+01  -0.2902107209E-03   0.3041307181E-02  -0.6797886769E-01  -0.3460212695E-02   0.4574291975E-02
   0.2287129602E+01   0.1979628751E+01   0.5723167627E-03   0.1577617455E+01  -0.8156797633E-02   0.5357192536E-03  -0.2375049039E-01  -0.8851127736E-02   0.5648485390E-03
   0.2296316216E+01   0.1754753976E+01   0.1988423432E+00   0.1468626415E+01   0.4160728386E-02   0.4853514160E-02  -0.5829643026E-01  -0.2064753200E-02  -0.2129240764E-02
   0.2287210774E+01   0.1979434918E+01   0.1990150526E+00   0.1578000558E+01  -0.3965206140E-02  -0.4627606610E-02  -0.1748784139E-01  -0.7425963606E-02  -0.2233644538E-02
   0.2514050201E+01   0.1756147998E+01   0.2023380800E-03   0.1422877756E+01   0.3462644578E-02   0.2689292641E-02  -0.6234237585E-01  -0.3023186327E-02   0.3301362079E-02
   0.2506552750E+01   0.1980204497E+01   0.4116010265E-03   0.1511781428E+01  -0.6047275613E-02  -0.9150604273E-03  -0.2092173041E-01  -0.8033198548E-02   0.1682437966E-03
   0.2514120239E+01   0.1755978807E+01   0.1987767756E+00   0.1421631709E+01   0.7230687944E-02   0.4236368964E-02  -0.5349770498E-01  -0.1680161397E-02  -0.2208175010E-02
   0.2506632171E+01   0.1980048747E+01   0.1989157221E+00   0.1508422209E+01  -0.2727998167E-02  -0.5761602534E-02  -0.1505813022E-01  -0.6487769853E-02  -0.1683913546E-02
   0.2731716466E+01   0.1757160975E+01   0.1029673891E-03   0.1383071830E+01   0.4659533865E-02   0.1378392145E-02  -0.5186122670E-01  -0.2526816737E-02   0.2287129755E-02
   0.2725783516E+01   0.1980590606E+01   0.2693516473E-03   0.1454513982E+01  -0.3866300931E-02  -0.6118056013E-03  -0.1810686200E-01  -0.6486890044E-02   0.3452147243E-03
   0.2731778439E+01   0.1757024312E+01   0.1987171519E+00   0.1379555923E+01   0.7903741783E-02   0.2438905549E-02  -0.4453262740E-01  -0.1192646703E-02  -0.2141709088E-02
   0.2725853080E+01   0.1980466904E+01   0.1988267055E+00   0.1448722051E+01  -0.1396777890E-02  -0.4370762777E-02  -0.1342397559E-01  -0.5136023666E-02  -0.1317325340E-02
   0.2949240741E+01   0.1758000648E+01   0.2154938698E-04   0.1350993419E+01   0.5708774389E-02   0.1251031402E-02  -0.3970863902E-01  -0.1840542796E-02   0.1600805600E-02
   0.2944830503E+01   0.1980842394E+01   0.1523722014E-03   0.1407268234E+01  -0.2871974195E-02  -0.1284752747E-02  -0.1334156633E-01  -0.4824036727E-02   0.1060727271E-03
   0.2949289963E+01   0.1757889632E+01   0.1986677739E+00   0.1345961958E+01   0.8567348240E-02   0.2223889603E-02  -0.3423282547E-01  -0.7809418535E-03  -0.2041013528E-02
   0.2944885632E+01   0.1980744202E+01   0.1987545010E+00   0.1400102952E+01  -0.8817976560E-03  -0.4555656901E-02  -0.9798964089E-02  -0.3658748451E-02  -0.9830151818E-03
   0.3166571060E+01   0.1758644161E+01  -0.3932499274E-04   0.1326882664E+01   0.5615668011E-02   0.5411912809E-03  -0.2633984431E-01  -0.1331336792E-02   0.1117811483E-02
   0.3163643601E+01   0.1980996686E+01   0.6816405525E-04   0.1373576552E+01  -0.1804092738E-02  -0.9209022700E-03  -0.8978250864E-02  -0.3251928464E-02   0.2398913266E-03
   0.3166605023E+01   0.1758551380E+01   0.1986314191E+00   0.1321078080E+01   0.8209747235E-02   0.1269273327E-02  -0.2269455649E-01  -0.5041473914E-03  -0.1925516811E-02
   0.3163681367E+01   0.1980916042E+01   0.1987019668E+00   0.1365686029E+01  -0.2608852786E-03  -0.3480153907E-02  -0.6683010781E-02  -0.2415292865E-02  -0.8037245672E-03
   0.3383564820E+01   0.1759068668E+01  -0.7588013010E-04   0.1312577543E+01   0.5916533530E-02   0.6572591098E-03  -0.1369995533E-01  -0.2884845966E-03   0.8759108332E-03
   0.3382102270E+01   0.1981080045E+01   0.1659846262E-04   0.1352740424E+01  -0.1582067983E-02  -0.1311145675E-02  -0.4993864056E-02  -0.1186947767E-02   0.7826031024E-04
   0.3383582051E+01   0.1758986657E+01   0.1986092343E+00   0.1306340760E+01   0.8356083526E-02   0.1408997455E-02  -0.1200087996E-01  -0.3567324768E-04  -0.1851597801E-02
   0.3382121432E+01   0.1981010008E+01   0.1986703743E+00   0.1344556468E+01  -0.1894570850E-03  -0.3698595607E-02  -0.3924140550E-02  -0.8772633531E-03  -0.6631536270E-03
   0.3600000000E+01   0.1759235337E+01  -0.8852111306E-04   0.1307504027E+01   0.5646989798E-02   0.3008599594E-03   0.1707706658E-02  -0.1205490931E-02   0.7751196498E-03
   0.3600000000E+01   0.1981105903E+01   0.0000000000E+00   0.1346181981E+01  -0.1219735522E-02  -0.9637651212E-03   0.2196902466E-02  -0.1404139604E-02   0.2082686517E-03
   0.3600000000E+01   0.1759156899E+01   0.1986018584E+00   0.1301181602E+01   0.8032175909E-02   0.9352961297E-03   0.2030036732E-02  -0.6637611814E-03  -0.1819513869E-02
   0.3600000000E+01   0.1981039130E+01   0.1986598236E+00   0.1337900595E+01   0.4168313563E-04  -0.3097492631E-02   0.2455474525E-02  -0.9488783124E-03  -0.6458160351E-03
   0.1004887227E+01   0.1523010240E+01   0.3655778983E-03   0.1600551078E+01  -0.1343924985E+00   0.2125822650E-02   0.2157444608E+00  -0.4676515077E-02   0.1457363837E-02
   0.1005014130E+01   0.1522949382E+01   0.1988871255E+00   0.1587864701E+01  -0.1056069129E+00   0.2047240465E-02   0.1552975595E+00  -0.1516796906E-03   0.7834707403E-03
   0.1230246593E+01   0.1522314666E+01   0.2079250977E-03   0.1550228566E+01  -0.1422153386E+00  -0.4323926937E-02   0.1008379205E+00  -0.2418509110E-02   0.9938778898E-02
   0.1230323350E+01   0.1522105181E+01   0.1987964165E+00   0.1536899580E+01  -0.1217561303E+00  -0.7229924613E-02   0.6752558413E-01   0.3639778080E-03   0.4232190250E-02
   0.1450764959E+01   0.1523857160E+01   0.1367681932E-03   0.1493545501E+01  -0.1103676573E+00  -0.1990079580E-02   0.3334326499E-02  -0.3167549709E-03   0.1181021790E-01
   0.1450802239E+01   0.1523577357E+01   0.1987523765E+00   0.1487879472E+01  -0.9665399392E-01  -0.3185964259E-02  -0.8847986651E-02   0.8633050162E-03   0.3689002552E-02
   0.1668358432E+01   0.1525979642E+01   0.9932404872E-04   0.1438186285E+01  -0.7341325195E-01  -0.4107229075E-02  -0.6432436125E-01  -0.5520369366E-03   0.1195020972E-01
   0.1668381002E+01   0.1525685306E+01   0.1987319374E+00   0.1439657755E+01  -0.6511509420E-01  -0.6071235898E-02  -0.6309660217E-01   0.2086150461E-03   0.2622519482E-02
   0.1884384580E+01   0.1528069309E+01   0.7289658008E-04   0.1394705099E+01  -0.3789638139E-01  -0.2069271379E-02  -0.1037216351E+00  -0.6344394677E-03   0.1050941808E-01
   0.1884407215E+01   0.1527791039E+01   0.1987135410E+00   0.1398727316E+01  -0.3291072701E-01  -0.3395788718E-02  -0.9533584197E-01  -0.5850906641E-03   0.1438114787E-02
   0.2099640190E+01   0.1529986683E+01   0.3694900262E-04   0.1357221710E+01  -0.1324937046E-01  -0.2510979947E-02  -0.1192357042E+00  -0.1148613225E-02   0.8892175396E-02
   0.2099668877E+01   0.1529740152E+01   0.1986902985E+00   0.1361406974E+01  -0.9827736587E-02  -0.3792006536E-02  -0.1077151046E+00  -0.8467714593E-03   0.4955701027E-03
   0.2314506353E+01   0.1531703807E+01  -0.5794385141E-05   0.1327022591E+01   0.4099253692E-02  -0.1257581321E-02  -0.1185008093E+00  -0.1194489926E-02   0.7015938770E-02
   0.2314539979E+01   0.1531493913E+01   0.1986614285E+00   0.1329658434E+01   0.6779997380E-02  -0.1964824341E-02  -0.1065954701E+00  -0.8687397838E-03  -0.2452933153E-03
   0.2529176547E+01   0.1533247258E+01  -0.5439612142E-04   0.1300732999E+01   0.1357873732E-01  -0.1351321591E-02  -0.1067007932E+00  -0.1235779511E-02   0.5496839088E-02
   0.2529211972E+01   0.1533072785E+01   0.1986302871E+00   0.1301716800E+01   0.1615502932E-01  -0.1842970128E-02  -0.9588527061E-01  -0.6505438233E-03  -0.7395598879E-03
   0.2743727207E+01   0.1534618452E+01  -0.1012610234E-03   0.1279555261E+01   0.1910248975E-01  -0.6076520768E-03  -0.8890997791E-01  -0.1068912592E-02   0.4177462781E-02
   0.2743760278E+01   0.1534474618E+01   0.1986000390E+00   0.1278942663E+01   0.2169766504E-01  -0.6818641442E-03  -0.8000033165E-01  -0.4674845216E-03  -0.1047038569E-02
   0.2958179104E+01   0.1535791987E+01  -0.1431691758E-03   0.1262268623E+01   0.2114770785E-01  -0.7105028784E-03  -0.6785096017E-01  -0.8527126924E-03   0.3253233963E-02
   0.2958206701E+01   0.1535672440E+01   0.1985738577E+00   0.1260532861E+01   0.2385689579E-01  -0.6836346099E-03  -0.6113639088E-01  -0.2631814931E-03  -0.1211505002E-02
   0.3172477950E+01   0.1536711491E+01  -0.1749788709E-03   0.1250075496E+01   0.2219173389E-01  -0.2683352509E-03  -0.4543873083E-01  -0.6305268912E-03   0.2579419492E-02
   0.3172497519E+01   0.1536609251E+01   0.1985537543E+00   0.1247548622E+01   0.2497379987E-01  -0.5022316550E-05  -0.4097464658E-01  -0.1847327133E-03  -0.1289616984E-02
   0.3386494039E+01   0.1537339480E+01  -0.1953680554E-03   0.1242376217E+01   0.2213313131E-01  -0.4427743565E-03  -0.2304224115E-01  -0.1498792257E-03   0.2224443008E-02
   0.3386504195E+01   0.1537247566E+01   0.1985412603E+00   0.1239438933E+01   0.2496165436E-01  -0.2004257559E-03  -0.2091780680E-01   0.4517051819E-04  -0.1317785440E-02
   0.3600000000E+01   0.1537570561E+01  -0.2019453766E-03   0.1240029298E+01   0.2234473565E-01  -0.1681640486E-03   0.1093973521E-02  -0.5704887244E-03   0.2084287452E-02
   0.3600000000E+01   0.1537482038E+01   0.1985370017E+00   0.1236942173E+01   0.2519218330E-01   0.1914343843E-03   0.1398008748E-02  -0.4031963404E-03  -0.1325842562E-02
   0.1050433173E+01   0.1297512855E+01   0.9388976416E-04   0.1631301175E+01  -0.2525507102E+00  -0.2072055496E-02   0.8684812878E-01  -0.1272172141E-01   0.1135438124E-01
   0.1050719593E+01   0.1297291766E+01   0.1987226482E+00   0.1580987610E+01  -0.2046903652E+00  -0.5910919076E-02   0.4441563761E-01  -0.5412273299E-02   0.3409736834E-02
   0.1277752470E+01   0.1298967257E+01  -0.2046662488E-03   0.1500349123E+01  -0.2218092771E+00   0.2232721330E-02  -0.1567743048E-01  -0.1863352795E-02   0.8941184397E-02
   0.1277889608E+01   0.1298653402E+01   0.1985308976E+00   0.1459635170E+01  -0.1940674909E+00   0.2988278103E-02  -0.2855756207E-01   0.6853652696E-03   0.3111570624E-02
   0.1495970787E+01   0.1301848073E+01  -0.3146332732E-03   0.1390932128E+01  -0.1635189630E+00   0.2659774422E-03  -0.8929076741E-01  -0.7397963884E-03   0.8242525945E-02
   0.1496015347E+01   0.1301516486E+01   0.1984682485E+00   0.1370193509E+01  -0.1480115505E+00   0.4944244105E-03  -0.8730912093E-01   0.1761598099E-02   0.9781967580E-03
   0.1709587988E+01   0.1304474567E+01  -0.3334608059E-03   0.1313107935E+01  -0.9583853772E-01   0.2037678618E-02  -0.1324589207E+00   0.5957642478E-03   0.6815885348E-02
   0.1709591801E+01   0.1304161179E+01   0.1984572606E+00   0.1303727499E+01  -0.9133585535E-01   0.1927788189E-02  -0.1238027269E+00   0.7811912784E-03   0.3205035021E-03
   0.1921087546E+01   0.1306680064E+01  -0.3242967636E-03   0.1258091619E+01  -0.4294247829E-01   0.8639909587E-03  -0.1510467640E+00   0.1811116229E-03   0.6247784192E-02
   0.1921078029E+01   0.1306399184E+01   0.1984651614E+00   0.1255816457E+01  -0.4233744489E-01   0.4788660499E-03  -0.1394557490E+00   0.2613823198E-03  -0.2340148344E-03