 VARIABLES = X,Y,DU1,DU2,U1,U2,S11,S22,S33,S12
 ZONE, T="0.1000D+01" F=FEPOINT, I= 2593 J= 4984
   0.3525214465E-01  -0.8259934869E-01   0.9862762519E-03   0.1641667135E-03   0.0000000000E+00   0.0000000000E+00  -0.8376357737E-02   0.3173435916E-02   0.2512907321E-02   0.1053865324E-01
   0.1828124427E-01  -0.7224223420E-01   0.9571859746E-03   0.1105030027E-03   0.0000000000E+00   0.0000000000E+00  -0.1318402876E-02  -0.4117254192E-02   0.3955208629E-03   0.1520395986E-01
   0.2103850835E-01  -0.9988117598E-01   0.1038508754E-02   0.1188250174E-03   0.0000000000E+00   0.0000000000E+00  -0.1118666537E-01   0.6207442462E-03   0.3355999611E-02   0.3689610015E-02
   0.2676700143E-01  -0.7742026161E-01   0.9720371331E-03   0.1378683869E-03   0.0000000000E+00   0.0000000000E+00  -0.2722774311E-02   0.7882239921E-03   0.8168322934E-03   0.1253862349E-01
   0.1965930362E-01  -0.8606132756E-01   0.9972756214E-03   0.1150380378E-03   0.0000000000E+00   0.0000000000E+00  -0.6378061572E-02  -0.1602504515E-02   0.1913418472E-02   0.1037851594E-01
   0.2814476134E-01  -0.9124020220E-01   0.1011827340E-02   0.1415562956E-03   0.0000000000E+00   0.0000000000E+00  -0.1308365093E-01   0.6579337733E-03   0.3925095279E-02   0.6514603453E-02
  -0.8750189306E-02  -0.4574736491E-01   0.1278880738E-03   0.7786318647E-04   0.0000000000E+00   0.0000000000E+00   0.6235622243E-03  -0.2582319568E-01  -0.1870686673E-03  -0.8576769677E-02
  -0.6985952344E-02  -0.3614557291E-01   0.1652560060E-03   0.6826088576E-04   0.0000000000E+00   0.0000000000E+00   0.7841711712E-03  -0.3244389916E-01  -0.2352513514E-03  -0.4928420287E-02
  -0.1553683353E-01  -0.3950318935E-01   0.1507848691E-03   0.1034675454E-03   0.0000000000E+00   0.0000000000E+00   0.7565734017E-02   0.6438335530E-02  -0.2269720205E-02   0.1813976586E-02
  -0.7868741770E-02  -0.4094629175E-01   0.1459008602E-03   0.7323735257E-04   0.0000000000E+00   0.0000000000E+00   0.2318724196E-03  -0.3008565737E-01  -0.6956172588E-04  -0.6861886172E-02
  -0.1126157935E-01  -0.3782383037E-01   0.1578342512E-03   0.8641502596E-04   0.0000000000E+00   0.0000000000E+00   0.4685069078E-02  -0.1243748096E-01  -0.1405520723E-02  -0.1129108859E-02
  -0.1214382710E-01  -0.4262554716E-01   0.1390212962E-03   0.9039714390E-04   0.0000000000E+00   0.0000000000E+00   0.4050477708E-02  -0.9156926002E-02  -0.1215143312E-02  -0.3500667686E-02
  -0.1388398952E+00  -0.6551577156E-01   0.3062678915E-04   0.3636925356E-03   0.0000000000E+00   0.0000000000E+00   0.5145995997E-01  -0.2742519773E-02  -0.1543798799E-01   0.8072906746E-02
  -0.1296952114E+00  -0.8286409487E-01   0.1330262565E-04   0.3572065254E-03   0.0000000000E+00   0.0000000000E+00   0.1428827773E-01  -0.6485052110E-03  -0.4286483319E-02   0.5679823558E-02
  -0.1194380652E+00  -0.6698602449E-01   0.3748576828E-04   0.3435387084E-03   0.0000000000E+00   0.0000000000E+00   0.4502792190E-01  -0.2047699961E-02  -0.1350837657E-01   0.1055383987E-01
  -0.1342669404E+00  -0.7418939241E-01   0.2257763943E-04   0.3609903920E-03   0.0000000000E+00   0.0000000000E+00   0.3266349850E-01  -0.1738297984E-02  -0.9799049549E-02   0.6989641978E-02
  -0.1245675599E+00  -0.7492460533E-01   0.2447614104E-04   0.3508306727E-03   0.0000000000E+00   0.0000000000E+00   0.2941165629E-01  -0.1536281555E-02  -0.8823496888E-02   0.7996486529E-02
  -0.1291387666E+00  -0.6625012773E-01   0.3427336251E-04   0.3543821696E-03   0.0000000000E+00   0.0000000000E+00   0.4869701234E-01  -0.2211247320E-02  -0.1460910370E-01   0.9328757464E-02
  -0.1816812944E+00  -0.7270584686E-01   0.7044568610E-05   0.3899665351E-03   0.0000000000E+00   0.0000000000E+00   0.4126478624E-01  -0.1437248070E-02  -0.1237943587E-01   0.1949308775E-02
  -0.1818813268E+00  -0.5079747331E-01   0.1395923676E-04   0.3841484904E-03   0.0000000000E+00   0.0000000000E+00   0.8287505539E-01  -0.4260944328E-02  -0.2486251662E-01   0.2439241109E-02
  -0.2000000030E+00  -0.5961062331E-01   0.0000000000E+00   0.3893753942E-03   0.0000000000E+00   0.0000000000E+00   0.6613479555E-01  -0.2925283025E-02  -0.1984043867E-01   0.8082422018E-04
  -0.1817813277E+00  -0.6175114388E-01   0.1048430007E-04   0.3875737200E-03   0.0000000000E+00   0.0000000000E+00   0.6210453519E-01  -0.2832716746E-02  -0.1863136056E-01   0.2234663688E-02
  -0.1909413860E+00  -0.5520336444E-01   0.6266026417E-05   0.3874439638E-03   0.0000000000E+00   0.0000000000E+00   0.7444845090E-01  -0.3648848470E-02  -0.2233453527E-01   0.1205353997E-02
  -0.1908396090E+00  -0.6615744663E-01   0.4569044418E-05   0.3904612692E-03   0.0000000000E+00   0.0000000000E+00   0.5369267995E-01  -0.2224538601E-02  -0.1610780398E-01   0.9836483287E-03
  -0.1333865188E-02  -0.5224369178E-02   0.3673863024E-03   0.2711574219E-04   0.0000000000E+00   0.0000000000E+00   0.9242991067E-02   0.7712996215E-01  -0.2772897320E-02   0.4185123313E-01
   0.3795104119E-03  -0.4335409180E-02   0.3795104119E-03   0.5421079607E-05   0.0000000000E+00   0.0000000000E+00  -0.5297908727E-02  -0.1308686837E+00   0.1589372618E-02  -0.8518199339E-02
  -0.9582990922E-03  -0.3513202711E-02   0.3911913978E-03   0.2422165893E-04   0.0000000000E+00   0.0000000000E+00   0.1708420666E-01   0.1534997591E+00  -0.5125261999E-02   0.6978287581E-01
  -0.4774408720E-03  -0.4779183786E-02   0.3731848720E-03   0.1697380368E-04   0.0000000000E+00   0.0000000000E+00   0.7875635785E-02  -0.1582734467E-01  -0.2362690735E-02   0.1702785146E-01
  -0.2897296464E-03  -0.3924534147E-02   0.3850155966E-03   0.1459340258E-04   0.0000000000E+00   0.0000000000E+00   0.6805318595E-02   0.1511797340E-01  -0.2041595579E-02   0.2462901439E-01
  -0.1146696893E-02  -0.4368816023E-02   0.3786740970E-03   0.2563885696E-04   0.0000000000E+00   0.0000000000E+00   0.3458768750E-02   0.9349883836E-01  -0.1037630625E-02   0.5242016194E-01
  -0.1836961099E+00   0.6694449006E-01   0.4322407858E-04   0.2893310558E-03   0.0000000000E+00   0.0000000000E+00   0.2907736483E+00  -0.2653746912E-02  -0.8723209449E-01  -0.2302794245E-02
  -0.1729047810E+00   0.8204724234E-01   0.7800098803E-04   0.2669204434E-03   0.0000000000E+00   0.0000000000E+00   0.3157908659E+00  -0.9412147974E-03  -0.9473725976E-01  -0.2619787627E-02
  -0.2000000030E+00   0.8027579510E-01   0.0000000000E+00   0.2757969016E-03   0.0000000000E+00   0.0000000000E+00   0.3140467563E+00  -0.8988621813E-03  -0.9421402690E-01  -0.1034671712E-03
  -0.1783010984E+00   0.7449628641E-01   0.5995964030E-04   0.2785497109E-03   0.0000000000E+00   0.0000000000E+00   0.3031150382E+00  -0.1925297498E-02  -0.9093451146E-01  -0.2521260496E-02
  -0.1864525471E+00   0.8116319790E-01   0.3885286692E-04   0.2730341000E-03   0.0000000000E+00   0.0000000000E+00   0.3155659079E+00  -0.7910095038E-03  -0.9466977238E-01  -0.1358260044E-02
  -0.1918472441E+00   0.7361088027E-01   0.2243189378E-04   0.2833016722E-03   0.0000000000E+00   0.0000000000E+00   0.3023264290E+00  -0.1778703276E-02  -0.9069792870E-01  -0.9573365707E-03
  -0.1508731637E+00   0.8227911834E-01   0.1411042875E-03   0.2513701439E-03   0.0000000000E+00   0.0000000000E+00   0.3123541464E+00  -0.1361744071E-02  -0.9370624393E-01  -0.5484009454E-02
  -0.1298586249E+00   0.8321520666E-01   0.2012730864E-03   0.2275405627E-03   0.0000000000E+00   0.0000000000E+00   0.3072299160E+00  -0.1865951501E-02  -0.9216897481E-01  -0.9035064432E-02
  -0.1398100076E+00   0.1002176409E+00   0.1899934113E-03   0.2176399482E-03   0.0000000000E+00   0.0000000000E+00   0.3394566503E+00   0.3363391079E-03  -0.1018369951E+00  -0.1743640775E-03
  -0.1403658148E+00   0.8274814291E-01   0.1712682207E-03   0.2404357128E-03   0.0000000000E+00   0.0000000000E+00   0.3108443775E+00  -0.1090551867E-02  -0.9325331326E-01  -0.7175737903E-02
  -0.1348340195E+00   0.9171689253E-01   0.1959224589E-03   0.2230624258E-03   0.0000000000E+00   0.0000000000E+00   0.3226183352E+00  -0.7875050153E-03  -0.9678550056E-01  -0.4368377403E-02
  -0.1453426072E+00   0.9124882289E-01   0.1645197562E-03   0.2349442899E-03   0.0000000000E+00   0.0000000000E+00   0.3253748234E+00  -0.7772400234E-03  -0.9761244703E-01  -0.3052017396E-02
  -0.2833827817E-03   0.5558364857E-03   0.4884329903E-03   0.2108392766E-04   0.0000000000E+00   0.0000000000E+00   0.2137178383E+01   0.6357558681E+00  -0.6411535150E+00  -0.1175606119E+00
   0.1262631700E-03   0.4876132519E-03   0.4948121350E-03   0.1457609393E-04   0.0000000000E+00   0.0000000000E+00   0.2460559394E+01   0.1345119002E+01  -0.7381678182E+00  -0.3983165499E+00
   0.1785374044E-03   0.9064456368E-03   0.4968934084E-03   0.1600486379E-04   0.0000000000E+00   0.0000000000E+00   0.1721984340E+01   0.1345260853E+01  -0.5165953021E+00  -0.2494460752E+00
  -0.7861026800E-04   0.5218743019E-03   0.4915720710E-03   0.1797942891E-04   0.0000000000E+00   0.0000000000E+00   0.2293555717E+01   0.9283147654E+00  -0.6880667152E+00  -0.2673594521E+00
   0.1526172531E-03   0.6968657579E-03   0.4960697521E-03   0.1512680689E-04   0.0000000000E+00   0.0000000000E+00   0.2076012789E+01   0.1455113185E+01  -0.6228038366E+00  -0.3417961916E+00
  -0.5159626709E-04   0.7303806411E-03   0.4934896059E-03   0.1778394612E-04   0.0000000000E+00   0.0000000000E+00   0.1947707490E+01   0.1011725722E+01  -0.5843122470E+00  -0.2535734537E+00
  -0.1359695207E-02   0.1057557486E-02   0.4790901530E-03   0.3260032563E-04   0.0000000000E+00   0.0000000000E+00   0.1448080261E+01   0.3283080568E+00  -0.4344240784E+00  -0.1284500093E-02
  -0.7108124700E-03   0.8441726142E-03   0.4851464600E-03   0.2611853924E-04   0.0000000000E+00   0.0000000000E+00   0.1720058545E+01   0.5033580137E+00  -0.5160175634E+00  -0.8266155390E-01
  -0.6055120783E-03   0.1383432987E-02   0.4901122117E-03   0.2460342731E-04   0.0000000000E+00   0.0000000000E+00   0.1463196447E+01   0.6844509737E+00  -0.4389589341E+00  -0.2083473368E+00
  -0.1035400520E-02   0.9510198859E-03   0.4819716898E-03   0.2951426590E-04   0.0000000000E+00   0.0000000000E+00   0.1540910547E+01   0.3908104325E+00  -0.4622731641E+00  -0.2820124779E-01
  -0.6577754294E-03   0.1113610084E-02   0.4880161806E-03   0.2516826383E-04   0.0000000000E+00   0.0000000000E+00   0.1614019021E+01   0.6131933043E+00  -0.4842057062E+00  -0.1631018784E+00
  -0.9822857380E-03   0.1220379127E-02   0.4849191520E-03   0.2848576680E-04   0.0000000000E+00   0.0000000000E+00   0.1505656251E+01   0.5120121556E+00  -0.4516968753E+00  -0.1155918638E+00
   0.4350682244E-03   0.1812195312E-02   0.4995533487E-03   0.2004674166E-04   0.0000000000E+00   0.0000000000E+00   0.1190404247E+01   0.1058568808E+01  -0.3571212740E+00  -0.2172411738E-01
   0.4470314818E-03   0.1314646057E-02   0.4995791607E-03   0.1737121666E-04   0.0000000000E+00   0.0000000000E+00   0.1392362384E+01   0.1262050301E+01  -0.4177087152E+00  -0.2800554376E-01
   0.8904956187E-03   0.1448428914E-02   0.5029910387E-03   0.1914597358E-04   0.0000000000E+00   0.0000000000E+00   0.1358688972E+01   0.1097156335E+01  -0.4076066915E+00   0.1609461344E+00
   0.4410526271E-03   0.1563485267E-02   0.4995690287E-03   0.1877361712E-04   0.0000000000E+00   0.0000000000E+00   0.1267226614E+01   0.1123198584E+01  -0.3801679843E+00  -0.2441510595E-01
   0.6687647966E-03   0.1381249743E-02   0.5012863386E-03   0.1797091313E-04   0.0000000000E+00   0.0000000000E+00   0.1381251052E+01   0.1203412269E+01  -0.4143753157E+00   0.8080488356E-01
   0.6626571305E-03   0.1629991704E-02   0.5011474025E-03   0.1927594417E-04   0.0000000000E+00   0.0000000000E+00   0.1278268474E+01   0.1115457576E+01  -0.3834805421E+00   0.6227613639E-01
   0.1109092697E-02   0.2046222621E-02   0.5040297664E-03   0.2258649110E-04   0.0000000000E+00   0.0000000000E+00   0.1152339167E+01   0.8907996929E+00  -0.3457017500E+00   0.1467405539E+00
   0.7720905276E-03   0.1928821076E-02   0.5018016246E-03   0.2092878566E-04   0.0000000000E+00   0.0000000000E+00   0.1177024345E+01   0.9980479522E+00  -0.3531073035E+00   0.7677513761E-01
   0.9998209689E-03   0.1747413738E-02   0.5035372129E-03   0.2095425820E-04   0.0000000000E+00   0.0000000000E+00   0.1232163412E+01   0.9540069710E+00  -0.3696490236E+00   0.1469323455E+00
   0.1438643012E-02   0.6454213557E-04   0.5237713190E-03   0.2497926517E-04   0.0000000000E+00   0.0000000000E+00   0.1874155332E+01   0.3853690934E+00  -0.5622465997E+00  -0.5628392436E+00
   0.1075634872E-02   0.2252126742E-03   0.5127239499E-03   0.1851539317E-04   0.0000000000E+00   0.0000000000E+00   0.2743638097E+01   0.5878633950E+00  -0.8230914290E+00  -0.1476279109E+00
   0.1100296824E-02  -0.1507131053E-03   0.5255035654E-03   0.2018217170E-04   0.0000000000E+00   0.0000000000E+00   0.1660434804E+01   0.6268786806E+00  -0.4981304413E+00  -0.1026975242E+01
   0.1257368638E-02   0.1451877456E-03   0.5184773306E-03   0.2205767560E-04   0.0000000000E+00   0.0000000000E+00   0.2258614777E+01   0.4027661257E+00  -0.6775844330E+00  -0.3866143966E+00
   0.1118471105E-02   0.3911897111E-04   0.5191074614E-03   0.2025780991E-04   0.0000000000E+00   0.0000000000E+00   0.2022935820E+01   0.4501493190E+00  -0.6068807459E+00  -0.6415077411E+00
   0.1269107063E-02  -0.4289638149E-04   0.5242746164E-03   0.2276981991E-04   0.0000000000E+00   0.0000000000E+00   0.2132164118E+01   0.7367482296E+00  -0.6396492355E+00  -0.6959171528E+00
   0.2507236167E-02   0.1949503240E-03   0.5347249869E-03   0.3648190296E-04   0.0000000000E+00   0.0000000000E+00   0.1304823511E+01   0.2457438892E+00  -0.3914470532E+00  -0.3463530923E+00
   0.1821061305E-02   0.3964007938E-03   0.5224375653E-03   0.2870090482E-04   0.0000000000E+00   0.0000000000E+00   0.1745142545E+01   0.3264516666E+00  -0.5235427635E+00  -0.2246918177E+00
   0.1991151716E-02  -0.1909202143E-03   0.5374399459E-03   0.3212602671E-04   0.0000000000E+00   0.0000000000E+00   0.1246052705E+01   0.3651799233E+00  -0.3738158116E+00  -0.5595026519E+00
   0.2164459203E-02   0.2959209919E-03   0.5288916826E-03   0.3283682888E-04   0.0000000000E+00   0.0000000000E+00   0.1491755756E+01   0.2686470847E+00  -0.4475267268E+00  -0.2915788194E+00
   0.1905653678E-02   0.1029356927E-03   0.5294859284E-03   0.3060886872E-04   0.0000000000E+00   0.0000000000E+00   0.1505660227E+01   0.3302014106E+00  -0.4516980682E+00  -0.4268782056E+00
   0.2248809202E-02   0.2177454505E-05   0.5356976721E-03   0.3446636450E-04   0.0000000000E+00   0.0000000000E+00   0.1329278018E+01   0.3283655426E+00  -0.3987834055E+00  -0.4429428699E+00
   0.4769682049E-02  -0.1733180378E-02   0.5829782293E-03   0.5526211195E-04   0.0000000000E+00   0.0000000000E+00   0.4839779242E+00   0.2259695628E+00  -0.1451933773E+00  -0.3435599134E+00
   0.3654155717E-02  -0.1987404750E-02   0.5838066072E-03   0.4656463989E-04   0.0000000000E+00   0.0000000000E+00   0.3669552494E+00   0.3016760007E+00  -0.1100865748E+00  -0.3520035896E+00
   0.4344098487E-02  -0.2998447102E-02   0.6016800072E-03   0.5088717813E-04   0.0000000000E+00   0.0000000000E+00   0.2463186479E+00   0.2573021375E+00  -0.7389559438E-01  -0.2776050960E+00
   0.4211673298E-02  -0.1860016628E-02   0.5831469479E-03   0.5118931218E-04   0.0000000000E+00   0.0000000000E+00   0.4432948481E+00   0.2698309712E+00  -0.1329884544E+00  -0.3500939180E+00
   0.3999491895E-02  -0.2492886316E-02   0.5931080955E-03   0.4876563426E-04   0.0000000000E+00   0.0000000000E+00   0.2934840634E+00   0.2679727859E+00  -0.8804521902E-01  -0.3093437690E+00
   0.4556809823E-02  -0.2365558809E-02   0.5922487829E-03   0.5332946107E-04   0.0000000000E+00   0.0000000000E+00   0.3616604311E+00   0.2497695292E+00  -0.1084981293E+00  -0.3163373019E+00
   0.1304063335E+00   0.8344144185E-01   0.7972254591E-03   0.2266894496E-03   0.0000000000E+00   0.0000000000E+00   0.3073392994E+00  -0.1807756099E-02  -0.9220178982E-01   0.9025191751E-02
   0.1408100066E+00   0.1002176376E+00   0.8100055525E-03   0.2176365558E-03   0.0000000000E+00   0.0000000000E+00   0.3394549785E+00   0.3110902277E-03  -0.1018364936E+00   0.1329574982E-03
   0.1207491727E+00   0.1001929776E+00   0.7491757011E-03   0.1929766195E-03   0.0000000000E+00   0.0000000000E+00   0.3271022564E+00   0.4082521484E-03  -0.9813067693E-01   0.2871117181E-03
   0.1356078436E+00   0.9183003038E-01   0.8032965806E-03   0.2226534808E-03   0.0000000000E+00   0.0000000000E+00   0.3226747977E+00  -0.8213395297E-03  -0.9680243931E-01   0.4348802914E-02
   0.1307793222E+00   0.1002060987E+00   0.7793271748E-03   0.2060977094E-03   0.0000000000E+00   0.0000000000E+00   0.3350661694E+00   0.6768413313E-03  -0.1005198508E+00   0.1993443072E-03
   0.1255787026E+00   0.9181747912E-01   0.7741465633E-03   0.2101022164E-03   0.0000000000E+00   0.0000000000E+00   0.3165590413E+00  -0.9402276193E-03  -0.9496771239E-01   0.4957037972E-02
   0.1394648719E+00   0.6613002225E-01   0.8379089434E-03   0.2582023513E-03   0.0000000000E+00   0.0000000000E+00   0.2864160845E+00  -0.5527304501E-02  -0.8592482535E-01   0.1109820449E-01
   0.1195141518E+00   0.6765747471E-01   0.7841357815E-03   0.2305846058E-03   0.0000000000E+00   0.0000000000E+00   0.2854564895E+00  -0.7201912248E-02  -0.8563694684E-01   0.1709987662E-01
   0.1349362520E+00   0.7478600831E-01   0.8182169903E-03   0.2427259114E-03   0.0000000000E+00   0.0000000000E+00   0.2963775759E+00  -0.4127146407E-02  -0.8891327278E-01   0.1034133926E-01
   0.1249600208E+00   0.7554980543E-01   0.7904627682E-03   0.2289804341E-03   0.0000000000E+00   0.0000000000E+00   0.2960052784E+00  -0.4358183625E-02  -0.8880158351E-01   0.1287067888E-01
   0.1294895407E+00   0.6689462202E-01   0.8110546928E-03   0.2452670224E-03   0.0000000000E+00   0.0000000000E+00   0.2865622554E+00  -0.6045778273E-02  -0.8596867661E-01   0.1396477745E-01
   0.1826406809E+00   0.7336905993E-01   0.9495708698E-03   0.2811218293E-03   0.0000000000E+00   0.0000000000E+00   0.3014805676E+00  -0.1764812026E-02  -0.9044417027E-01   0.2318803873E-02
   0.1828590990E+00   0.5147784535E-01   0.9559450230E-03   0.3061104524E-03   0.0000000000E+00   0.0000000000E+00   0.2654082979E+00  -0.5106008659E-02  -0.7962248937E-01   0.2692084105E-02
   0.2010000030E+00   0.6029935051E-01   0.1000000000E-02   0.2993518149E-03   0.0000000000E+00   0.0000000000E+00   0.2798587184E+00  -0.3390183747E-02  -0.8395761551E-01   0.1032705406E-03
   0.1827499496E+00   0.6242375261E-01   0.9528176042E-03   0.2939161078E-03   0.0000000000E+00   0.0000000000E+00   0.2834574892E+00  -0.3479181612E-02  -0.8503724675E-01   0.2574489395E-02
   0.1919289905E+00   0.5588938097E-01   0.9774045411E-03   0.3035122673E-03   0.0000000000E+00   0.0000000000E+00   0.2725837010E+00  -0.4274671902E-02  -0.8177511031E-01   0.1351821613E-02
   0.1918212224E+00   0.6683508153E-01   0.9756733962E-03   0.2911150263E-03   0.0000000000E+00   0.0000000000E+00   0.2906965541E+00  -0.2587854327E-02  -0.8720896624E-01   0.1151174183E-02
   0.2704592117E-02  -0.5445953852E-03   0.5514574473E-03   0.3939829281E-04   0.0000000000E+00   0.0000000000E+00   0.8673091430E+00   0.3192008315E+00  -0.2601927429E+00  -0.4888881335E+00
   0.2105409835E-02  -0.7728808411E-03   0.5533104750E-03   0.3319654190E-04   0.0000000000E+00   0.0000000000E+00   0.6813548335E+00   0.4650593647E+00  -0.2044064500E+00  -0.5599159181E+00
   0.2625347396E-02  -0.1459188392E-02   0.5711210463E-03   0.3759750757E-04   0.0000000000E+00   0.0000000000E+00   0.3922410582E+00   0.3973146473E+00  -0.1176723175E+00  -0.4142285607E+00
   0.2404731182E-02  -0.6585144045E-03   0.5521141619E-03   0.3652115551E-04   0.0000000000E+00   0.0000000000E+00   0.8113769452E+00   0.4067278017E+00  -0.2434130836E+00  -0.5257148213E+00
   0.2365860800E-02  -0.1115968929E-02   0.5626979402E-03   0.3546265108E-04   0.0000000000E+00   0.0000000000E+00   0.5049598104E+00   0.4026994278E+00  -0.1514879431E+00  -0.4700726562E+00
   0.2664943427E-02  -0.1001600424E-02   0.5612629175E-03   0.3878933636E-04   0.0000000000E+00   0.0000000000E+00   0.6277379198E+00   0.3751796841E+00  -0.1883213759E+00  -0.4714684596E+00
   0.3472904562E-02  -0.4170241136E-02   0.6184716515E-03   0.4087032408E-04   0.0000000000E+00   0.0000000000E+00   0.7985644014E-01   0.2126775137E+00  -0.2395693204E-01  -0.1535464298E+00
   0.1903608190E-02  -0.3552887209E-02   0.6094291902E-03   0.2341220132E-04   0.0000000000E+00   0.0000000000E+00   0.1450511563E-01   0.1403300833E+00  -0.4351534689E-02  -0.6267089785E-01
   0.2242130878E-02  -0.5275244404E-02   0.6332545983E-03   0.2602110599E-04   0.0000000000E+00   0.0000000000E+00   0.7649192464E-02   0.6495462678E-01  -0.2294757739E-02  -0.3663250884E-01
   0.2688306942E-02  -0.3860841593E-02   0.6140010417E-03   0.3286395654E-04   0.0000000000E+00   0.0000000000E+00   0.6202804891E-01   0.1892157645E+00  -0.1860841467E-01  -0.1170416836E+00
   0.2073484575E-02  -0.4414105274E-02   0.6219568754E-03   0.2467730640E-04   0.0000000000E+00   0.0000000000E+00   0.2706922328E-02   0.8270518000E-01  -0.8120766983E-03  -0.4695154056E-01
   0.2857730458E-02  -0.4722680281E-02   0.6260757475E-03   0.3350820912E-04   0.0000000000E+00   0.0000000000E+00   0.3966741871E-01   0.1501414036E+00  -0.1190022561E-01  -0.9312756239E-01
   0.1787704334E-02  -0.1169277932E-02   0.5626554239E-03   0.2780440793E-04   0.0000000000E+00   0.0000000000E+00   0.3141916688E+00   0.5160013159E+00  -0.9425750065E-01  -0.4336743234E+00
   0.1151215055E-02  -0.1064161782E-02   0.5595057760E-03   0.1662141783E-04   0.0000000000E+00   0.0000000000E+00   0.4643891047E-01   0.5647922691E+00  -0.1393167314E-01  -0.2248229140E+00
   0.1635912652E-02  -0.2044555253E-02   0.5828635422E-03   0.2235151659E-04   0.0000000000E+00   0.0000000000E+00   0.5043553185E-01   0.3211524431E+00  -0.1513065956E-01  -0.1457891476E+00
   0.1469333771E-02  -0.1116090841E-02   0.5609546770E-03   0.2284192879E-04   0.0000000000E+00   0.0000000000E+00   0.2485340479E+00   0.5411208244E+00  -0.7456021437E-01  -0.3505154717E+00
   0.1394544015E-02  -0.1554182695E-02   0.5721648189E-03   0.1966235469E-04   0.0000000000E+00   0.0000000000E+00   0.2726184498E-01   0.3711403916E+00  -0.8178553494E-02  -0.1637078115E+00
   0.1712391532E-02  -0.1606938539E-02   0.5733425818E-03   0.2505596108E-04   0.0000000000E+00   0.0000000000E+00   0.1490753087E+00   0.4151041328E+00  -0.4472259261E-01  -0.2890995845E+00
   0.1481480466E-02  -0.5298406658E-03   0.5431167427E-03   0.2555931418E-04   0.0000000000E+00   0.0000000000E+00   0.7329829765E+00   0.6400265080E+00  -0.2198948930E+00  -0.7316529706E+00
   0.1793679580E-02  -0.6511608436E-03   0.5484479799E-03   0.2957786741E-04   0.0000000000E+00   0.0000000000E+00   0.7242453875E+00   0.5376567215E+00  -0.2172736163E+00  -0.6238558180E+00
   0.1635340717E-02  -0.8495075144E-03   0.5536344571E-03   0.2673361663E-04   0.0000000000E+00   0.0000000000E+00   0.4914255134E+00   0.5602538921E+00  -0.1474276540E+00  -0.5513269514E+00
   0.1946410107E-02  -0.9708556227E-03   0.5578359673E-03   0.3072429731E-04   0.0000000000E+00   0.0000000000E+00   0.4821299682E+00   0.5019358498E+00  -0.1446389905E+00  -0.4853171460E+00
   0.5438297037E-03  -0.5996603290E-03   0.5438297037E-03   0.0000000000E+00   0.0000000000E+00   0.0000000000E+00   0.3656636676E+00   0.3170065679E-01  -0.1096991003E+00   0.1466502388E+00
   0.5729022444E-03  -0.1588587536E-02   0.5729022444E-03   0.1969043858E-05   0.0000000000E+00   0.0000000000E+00   0.6932877401E-03  -0.1242298803E+00  -0.2079863220E-03   0.4578782112E-01
   0.8483074439E-03  -0.8301503212E-03   0.5524528049E-03   0.1007144380E-04   0.0000000000E+00   0.0000000000E+00   0.2247627966E+00   0.3858761315E+00  -0.6742883898E-01  -0.9072570891E-01
   0.5603199043E-03  -0.1094119574E-02   0.5603199043E-03   0.9888859304E-06   0.0000000000E+00   0.0000000000E+00  -0.1012760469E+00  -0.2905144833E+00   0.3038281406E-01   0.6311858389E-01
   0.8626453599E-03  -0.1326741711E-02   0.5667907209E-03   0.8928178835E-05   0.0000000000E+00   0.0000000000E+00  -0.2610933677E-02   0.2288140765E+00   0.7832801030E-03  -0.8186729669E-01
  -0.1400044380E+00  -0.9963263401E-01  -0.4436951540E-05   0.3673669942E-03   0.0000000000E+00   0.0000000000E+00  -0.1459938533E-01   0.1643704557E-03   0.4379815598E-02   0.1683282597E-03
  -0.1200077441E+00  -0.9965423677E-01  -0.7747131574E-05   0.3457642300E-03   0.0000000000E+00   0.0000000000E+00  -0.2234098917E-01   0.1303125114E-03   0.6702296751E-02   0.2615254378E-03
  -0.1348507791E+00  -0.9124792388E-01   0.3477915451E-05   0.3627313194E-03   0.0000000000E+00   0.0000000000E+00  -0.5427704808E-03  -0.3816043393E-03   0.1628311442E-03   0.2803918752E-02
  -0.1300059172E+00  -0.9964257808E-01  -0.5922201162E-05   0.3574229232E-03   0.0000000000E+00   0.0000000000E+00  -0.1789823060E-01   0.2458627965E-03   0.5369469179E-02   0.1963960479E-03
  -0.1248509663E+00  -0.9125862554E-01   0.3285709580E-05   0.3520296627E-03   0.0000000000E+00   0.0000000000E+00  -0.4177767785E-02  -0.2682704098E-03   0.1253330335E-02   0.3048992616E-02
  -0.1064848801E-01  -0.2435142752E-01   0.2201069900E-03   0.8371827517E-04   0.0000000000E+00   0.0000000000E+00   0.1286374088E-01   0.2025558818E-01  -0.3859122265E-02   0.2138344359E-01
  -0.4763230904E-02  -0.2220764619E-01   0.2324835055E-03   0.5346671156E-04   0.0000000000E+00   0.0000000000E+00   0.1392469710E-02  -0.3084713287E-01  -0.4177409129E-03   0.2961546564E-02
  -0.8855245488E-02  -0.1879624866E-01   0.2522129216E-03   0.7580754229E-04   0.0000000000E+00   0.0000000000E+00   0.1778727953E-01   0.3545082034E-01  -0.5336183859E-02   0.3473307518E-01
  -0.7706001348E-02  -0.2327888300E-01   0.2261531123E-03   0.6924729597E-04   0.0000000000E+00   0.0000000000E+00   0.8215663905E-02  -0.3731120599E-02  -0.2464699171E-02   0.1307517708E-01
  -0.6809556753E-02  -0.2050208175E-01   0.2420294175E-03   0.6450275234E-04   0.0000000000E+00   0.0000000000E+00   0.9669696200E-02   0.4808655412E-02  -0.2900908860E-02   0.1802860719E-01
  -0.9752485172E-02  -0.2157379227E-01   0.2355415179E-03   0.7980773394E-04   0.0000000000E+00   0.0000000000E+00   0.1313586951E-01   0.2390693531E-01  -0.3940760853E-02   0.2722338281E-01
   0.9790043759E-03  -0.7994341011E-01   0.9790043759E-03   0.5658809208E-04   0.0000000000E+00   0.0000000000E+00   0.4004858243E-04  -0.1122075752E-01  -0.1201457473E-04   0.2575770855E-02
   0.1039215717E-02  -0.9994273928E-01   0.1039215717E-02   0.5726171770E-04   0.0000000000E+00   0.0000000000E+00   0.1394975157E-02   0.9266837435E-03  -0.4184925470E-03  -0.1766622332E-02
   0.1008857542E-02  -0.8994286272E-01   0.1008857542E-02   0.5713337802E-04   0.0000000000E+00   0.0000000000E+00   0.6676373692E-03  -0.2783812355E-02  -0.2002912107E-03   0.9626456593E-03
   0.1103907882E-01  -0.9991224346E-01   0.1039079043E-02   0.8775753555E-04   0.0000000000E+00   0.0000000000E+00  -0.3643966941E-02   0.4124255773E-03   0.1093190082E-02   0.1165021771E-02
   0.1100887897E-01  -0.8991223277E-01   0.1008879189E-02   0.8777082608E-04   0.0000000000E+00   0.0000000000E+00  -0.3062689674E-02  -0.3901780460E-02   0.9188069022E-03   0.3725528567E-02
   0.3423025602E-01  -0.6659422382E-01   0.9406447160E-03   0.1621214800E-03   0.0000000000E+00   0.0000000000E+00   0.4651090134E-02   0.1024170908E-01  -0.1395327040E-02   0.8005534232E-02
   0.2448346120E-01  -0.5712421390E-01   0.9115266025E-03   0.1311958007E-03   0.0000000000E+00   0.0000000000E+00   0.5696058147E-02   0.7395975570E-02  -0.1708817444E-02   0.8217203634E-02
   0.2935715699E-01  -0.6185889857E-01   0.9263840890E-03   0.1469789335E-03   0.0000000000E+00   0.0000000000E+00   0.6462155189E-02   0.1027965702E-01  -0.1938646557E-02   0.7626729620E-02
   0.2138277670E-01  -0.6468342611E-01   0.9347811976E-03   0.1206509935E-03   0.0000000000E+00   0.0000000000E+00   0.1031059195E-02  -0.8746971506E-03  -0.3093177585E-03   0.1124812299E-01
   0.2625575209E-01  -0.6941801023E-01   0.9489162875E-03   0.1365272729E-03   0.0000000000E+00   0.0000000000E+00  -0.5523917915E-03   0.3314633918E-02   0.1657175375E-03   0.1162301848E-01
  -0.3900973341E-02  -0.1716567470E-01   0.2631086587E-03   0.4720789762E-04   0.0000000000E+00   0.0000000000E+00   0.1994068634E-02  -0.2263911443E-01  -0.5982205902E-03   0.7786616955E-02
   0.2498710532E-03  -0.1948441881E-01   0.2498710532E-03   0.2276399358E-04   0.0000000000E+00   0.0000000000E+00  -0.8898133107E-03  -0.1122952901E+00   0.2669439932E-03  -0.2114452303E-02
   0.2788298039E-03  -0.1503743213E-01   0.2788298039E-03   0.1801756910E-04   0.0000000000E+00   0.0000000000E+00  -0.1135808265E-02  -0.1192419361E+00   0.3407424794E-03  -0.2628859423E-02
  -0.1825861015E-02  -0.1832541164E-01   0.2561799850E-03   0.3462196440E-04   0.0000000000E+00   0.0000000000E+00   0.1211988749E-02  -0.6728728514E-01  -0.3635966246E-03   0.1854384967E-02
   0.2638265707E-03  -0.1726092013E-01   0.2638265707E-03   0.2039607170E-04   0.0000000000E+00   0.0000000000E+00  -0.1569732194E-02  -0.1188102744E+00   0.4709196583E-03  -0.2437248730E-02
  -0.1811375193E-02  -0.1610094336E-01   0.2706658067E-03   0.3322184083E-04   0.0000000000E+00   0.0000000000E+00   0.1713968725E-02  -0.6836241086E-01  -0.5141906175E-03   0.2493018000E-02
   0.1207600802E-01  -0.5592413249E-01   0.9070168211E-03   0.8825950813E-04   0.0000000000E+00   0.0000000000E+00   0.1275493157E-03  -0.1698437381E-01  -0.3826479472E-04   0.1179889873E-01
   0.8881952939E-03  -0.5079603797E-01   0.8881952939E-03   0.4752493326E-04   0.0000000000E+00   0.0000000000E+00  -0.8006595875E-04  -0.5903905163E-01   0.2401978762E-04   0.1600042793E-02
   0.9304679672E-03  -0.6381009600E-01   0.9304679672E-03   0.5317400203E-04   0.0000000000E+00   0.0000000000E+00   0.1802722948E-03  -0.3617453167E-01  -0.5408168844E-04   0.2512546377E-02